<?xml version="1.0"?>
<VTKFile type="UnstructuredGrid" version="0.1" byte_order="LittleEndian" header_type="UInt32" compressor="vtkZLibDataCompressor">
  <UnstructuredGrid>
    <Piece NumberOfPoints="32" NumberOfCells="53">
      <PointData Scalars="Scalars_" PedigreeIds="XMS:Index">
        <DataArray type="Int32" Name="XMS:Index" format="ascii" RangeMin="0" RangeMax="31">
          0 1 2 3 4 5
          6 7 8 9 10 11
          12 13 14 15 16 17
          18 19 20 21 22 23
          24 25 26 27 28 29
          30 31
        </DataArray>
        <DataArray type="Float32" Name="Scalars_" format="ascii" RangeMin="0" RangeMax="0">
          0 0 0 0 0 0
          0 0 0 0 0 0
          0 0 0 0 0 0
          0 0 0 0 0 0
          0 0 0 0 0 0
          0 0
        </DataArray>
      </PointData>
      <CellData PedigreeIds="XMS:Index">
        <DataArray type="Int32" Name="XMS:Index" format="ascii" RangeMin="0" RangeMax="52">
          0 1 2 3 4 5
          6 7 8 9 10 11
          12 13 14 15 16 17
          18 19 20 21 22 23
          24 25 26 27 28 29
          30 31 32 33 34 35
          36 37 38 39 40 41
          42 43 44 45 46 47
          48 49 50 51 52
        </DataArray>
        <DataArray type="Int32" Name="XMS:Cell Material" format="ascii" RangeMin="1" RangeMax="1">
          1 1 1 1 1 1
          1 1 1 1 1 1
          1 1 1 1 1 1
          1 1 1 1 1 1
          1 1 1 1 1 1
          1 1 1 1 1 1
          1 1 1 1 1 1
          1 1 1 1 1 1
          1 1 1 1 1
        </DataArray>
      </CellData>
      <Points>
        <DataArray type="Float64" Name="Points" NumberOfComponents="3" format="ascii" RangeMin="55.84609297" RangeMax="115.17101415">
          26.0 68.0 0 21.0 68.0 0
          28.0 63.0 0 31.0 68.0 0
          43.0 75.0 0 21.0 56.0 0
          32.0 57.0 0 37.0 63.0 0
          36.0 68.0 0 41.0 68.0 0
          46.0 68.0 0 51.0 68.0 0
          56.0 67.0 0 67.0 76.0 0
          29.0 47.0 0 42.0 54.0 0
          45.0 63.0 0 53.0 59.0 0
          61.0 67.0 0 66.0 67.0 0
          71.0 67.0 0 76.0 68.0 0
          80.0 69.0 0 85.0 70.0 0
          90.0 70.0 0 48.0 39.0 0
          65.0 56.0 0 75.0 64.0 0
          84.0 63.0 0 90.0 54.0 0
          79.0 44.0 0 78.0 57.0 0
        </DataArray>
      </Points>
      <Cells>
        <DataArray type="Int32" Name="connectivity" format="ascii" RangeMin="0" RangeMax="31">
          1 2 0 3 0 2
          3 4 0 1 0 4
          5 2 1 2 5 6
          2 6 7 7 3 2
          7 8 3 3 8 4
          9 4 8 4 9 10
          10 11 4 11 12 4
          12 13 4 6 5 14
          14 15 6 6 15 7
          16 7 15 9 7 16
          7 9 8 10 9 16
          16 11 10 11 16 17
          17 12 11 12 17 18
          13 12 18 18 19 13
          20 13 19 21 13 20
          13 21 22 22 23 13
          23 24 13 15 14 25
          15 25 17 17 16 15
          17 25 26 18 17 26
          18 26 19 20 19 26
          27 20 26 20 27 21
          22 21 27 22 27 28
          23 22 28 28 24 23
          29 24 28 25 30 26
          30 31 26 27 26 31
          31 28 27 28 31 29
          30 29 31
        </DataArray>
        <DataArray type="Int32" Name="offsets" format="ascii" RangeMin="3" RangeMax="159">
          3 6 9 12 15 18
          21 24 27 30 33 36
          39 42 45 48 51 54
          57 60 63 66 69 72
          75 78 81 84 87 90
          93 96 99 102 105 108
          111 114 117 120 123 126
          129 132 135 138 141 144
          147 150 153 156 159
        </DataArray>
        <DataArray type="UInt8" Name="types" format="ascii" RangeMin="5" RangeMax="5">
          5 5 5 5 5 5
          5 5 5 5 5 5
          5 5 5 5 5 5
          5 5 5 5 5 5
          5 5 5 5 5 5
          5 5 5 5 5 5
          5 5 5 5 5 5
          5 5 5 5 5 5
          5 5 5 5 5
        </DataArray>
      </Cells>
    </Piece>
  </UnstructuredGrid>
</VTKFile>
