<?xml version="1.0"?>
<VTKFile type="UnstructuredGrid" version="0.1" byte_order="LittleEndian" header_type="UInt32" compressor="vtkZLibDataCompressor">
  <UnstructuredGrid>
    <Piece NumberOfPoints="14" NumberOfCells="12">
      <PointData PedigreeIds="XMS:Index">
        <DataArray type="Int32" Name="XMS:Index" format="ascii" RangeMin="0" RangeMax="13">
          0 1 2 3 4 5
          6 7 8 9 10 11
          12 13
        </DataArray>
      </PointData>
      <CellData Scalars="Scalars_" PedigreeIds="XMS:Index">
        <DataArray type="Int32" Name="XMS:Index" format="ascii" RangeMin="0" RangeMax="11">
          0 1 2 3 4 5
          6 7 8 9 10 11
        </DataArray>
        <DataArray type="Int32" Name="XMS:Cell Material" format="ascii" RangeMin="1" RangeMax="1">
          1 1 1 1 1 1
          1 1 1 1 1 1
        </DataArray>
        <DataArray type="Float64" Name="XMS:Cell Top" format="ascii" RangeMin="-9999999" RangeMax="-9999999">
          -9999999 -9999999 -9999999 -9999999 -9999999 -9999999
          -9999999 -9999999 -9999999 -9999999 -9999999 -9999999
        </DataArray>
        <DataArray type="Float64" Name="XMS:Cell Bottom" format="ascii" RangeMin="-9999999" RangeMax="-9999999">
          -9999999 -9999999 -9999999 -9999999 -9999999 -9999999
          -9999999 -9999999 -9999999 -9999999 -9999999 -9999999
        </DataArray>
        <DataArray type="Int32" Name="XMS:Cell Layer" format="ascii" RangeMin="1" RangeMax="1">
          1 1 1 1 1 1
          1 1 1 1 1 1
        </DataArray>
        <DataArray type="Float32" Name="Scalars_" format="ascii" RangeMin="0" RangeMax="0">
          0 0 0 0 0 0
          0 0 0 0 0 0
        </DataArray>
      </CellData>
      <Points>
        <DataArray type="Float64" Name="Points" NumberOfComponents="3" format="ascii" RangeMin="65.290121764" RangeMax="105.62296152">
          59.8 63.7 0 57.2 57.5 0
          48.1 51.7 0 35.8 54.6 0
          27.7 59.8 0 24.2 72.1 0
          24.2 81.1 0 30.6 90.9 0
          62.28 74.11 0 43.6 75 0
          46.8 93.5 0 60.8 82.4 0
          57.5 88.6 0 -74.8 58 0
        </DataArray>
      </Points>
      <Cells>
        <DataArray type="Int32" Name="connectivity" format="ascii" RangeMin="0" RangeMax="12">
          1 0 9 8 9 0
          9 2 1 3 2 9
          9 4 3 9 5 4
          9 6 5 6 9 7
          7 9 10 8 11 9
          10 9 12 12 9 11
        </DataArray>
        <DataArray type="Int32" Name="offsets" format="ascii" RangeMin="3" RangeMax="36">
          3 6 9 12 15 18
          21 24 27 30 33 36
        </DataArray>
        <DataArray type="UInt8" Name="types" format="ascii" RangeMin="5" RangeMax="5">
          5 5 5 5 5 5
          5 5 5 5 5 5
        </DataArray>
      </Cells>
    </Piece>
  </UnstructuredGrid>
</VTKFile>
